+ 0.5 0 1 cbr 512 ------- 0 0.0 2.0 0 0
- 0.5 0 1 cbr 512 ------- 0 0.0 2.0 0 0
+ 0.505 0 1 cbr 512 ------- 0 0.0 2.0 1 1
- 0.505 0 1 cbr 512 ------- 0 0.0 2.0 1 1
+ 0.51 0 1 cbr 512 ------- 0 0.0 2.0 2 2
- 0.51 0 1 cbr 512 ------- 0 0.0 2.0 2 2
r 0.514096 0 1 cbr 512 ------- 0 0.0 2.0 0 0
+ 0.514096 1 2 cbr 512 ------- 0 0.0 2.0 0 0
- 0.514096 1 2 cbr 512 ------- 0 0.0 2.0 0 0
+ 0.515 0 1 cbr 512 ------- 0 0.0 2.0 3 3
- 0.515 0 1 cbr 512 ------- 0 0.0 2.0 3 3
r 0.519096 0 1 cbr 512 ------- 0 0.0 2.0 1 1
+ 0.519096 1 2 cbr 512 ------- 0 0.0 2.0 1 1
- 0.519096 1 2 cbr 512 ------- 0 0.0 2.0 1 1
+ 0.52 0 1 cbr 512 ------- 0 0.0 2.0 4 4
- 0.52 0 1 cbr 512 ------- 0 0.0 2.0 4 4
r 0.524096 0 1 cbr 512 ------- 0 0.0 2.0 2 2
+ 0.524096 1 2 cbr 512 ------- 0 0.0 2.0 2 2
- 0.524096 1 2 cbr 512 ------- 0 0.0 2.0 2 2
+ 0.525 0 1 cbr 512 ------- 0 0.0 2.0 5 5
- 0.525 0 1 cbr 512 ------- 0 0.0 2.0 5 5
r 0.528192 1 2 cbr 512 ------- 0 0.0 2.0 0 0
r 0.529096 0 1 cbr 512 ------- 0 0.0 2.0 3 3
+ 0.529096 1 2 cbr 512 ------- 0 0.0 2.0 3 3
- 0.529096 1 2 cbr 512 ------- 0 0.0 2.0 3 3
+ 0.53 0 1 cbr 512 ------- 0 0.0 2.0 6 6
- 0.53 0 1 cbr 512 ------- 0 0.0 2.0 6 6
r 0.533192 1 2 cbr 512 ------- 0 0.0 2.0 1 1
r 0.534096 0 1 cbr 512 ------- 0 0.0 2.0 4 4
+ 0.534096 1 2 cbr 512 ------- 0 0.0 2.0 4 4
- 0.534096 1 2 cbr 512 ------- 0 0.0 2.0 4 4
+ 0.535 0 1 cbr 512 ------- 0 0.0 2.0 7 7
- 0.535 0 1 cbr 512 ------- 0 0.0 2.0 7 7
r 0.538192 1 2 cbr 512 ------- 0 0.0 2.0 2 2
r 0.539096 0 1 cbr 512 ------- 0 0.0 2.0 5 5
+ 0.539096 1 2 cbr 512 ------- 0 0.0 2.0 5 5
- 0.539096 1 2 cbr 512 ------- 0 0.0 2.0 5 5
+ 0.54 0 1 cbr 512 ------- 0 0.0 2.0 8 8
- 0.54 0 1 cbr 512 ------- 0 0.0 2.0 8 8
r 0.543192 1 2 cbr 512 ------- 0 0.0 2.0 3 3
r 0.544096 0 1 cbr 512 ------- 0 0.0 2.0 6 6
+ 0.544096 1 2 cbr 512 ------- 0 0.0 2.0 6 6
- 0.544096 1 2 cbr 512 ------- 0 0.0 2.0 6 6
+ 0.545 0 1 cbr 512 ------- 0 0.0 2.0 9 9
- 0.545 0 1 cbr 512 ------- 0 0.0 2.0 9 9
r 0.548192 1 2 cbr 512 ------- 0 0.0 2.0 4 4
r 0.549096 0 1 cbr 512 ------- 0 0.0 2.0 7 7
+ 0.549096 1 2 cbr 512 ------- 0 0.0 2.0 7 7
- 0.549096 1 2 cbr 512 ------- 0 0.0 2.0 7 7
+ 0.55 0 1 cbr 512 ------- 0 0.0 2.0 10 10
- 0.55 0 1 cbr 512 ------- 0 0.0 2.0 10 10
r 0.553192 1 2 cbr 512 ------- 0 0.0 2.0 5 5
r 0.554096 0 1 cbr 512 ------- 0 0.0 2.0 8 8
+ 0.554096 1 2 cbr 512 ------- 0 0.0 2.0 8 8
- 0.554096 1 2 cbr 512 ------- 0 0.0 2.0 8 8
+ 0.555 0 1 cbr 512 ------- 0 0.0 2.0 11 11
- 0.555 0 1 cbr 512 ------- 0 0.0 2.0 11 11
r 0.558192 1 2 cbr 512 ------- 0 0.0 2.0 6 6
r 0.559096 0 1 cbr 512 ------- 0 0.0 2.0 9 9
+ 0.559096 1 2 cbr 512 ------- 0 0.0 2.0 9 9
- 0.559096 1 2 cbr 512 ------- 0 0.0 2.0 9 9
+ 0.56 0 1 cbr 512 ------- 0 0.0 2.0 12 12
- 0.56 0 1 cbr 512 ------- 0 0.0 2.0 12 12
r 0.563192 1 2 cbr 512 ------- 0 0.0 2.0 7 7
r 0.564096 0 1 cbr 512 ------- 0 0.0 2.0 10 10
+ 0.564096 1 2 cbr 512 ------- 0 0.0 2.0 10 10
- 0.564096 1 2 cbr 512 ------- 0 0.0 2.0 10 10
+ 0.565 0 1 cbr 512 ------- 0 0.0 2.0 13 13
- 0.565 0 1 cbr 512 ------- 0 0.0 2.0 13 13
r 0.568192 1 2 cbr 512 ------- 0 0.0 2.0 8 8
r 0.569096 0 1 cbr 512 ------- 0 0.0 2.0 11 11
+ 0.569096 1 2 cbr 512 ------- 0 0.0 2.0 11 11
- 0.569096 1 2 cbr 512 ------- 0 0.0 2.0 11 11
+ 0.57 0 1 cbr 512 ------- 0 0.0 2.0 14 14
- 0.57 0 1 cbr 512 ------- 0 0.0 2.0 14 14
r 0.573192 1 2 cbr 512 ------- 0 0.0 2.0 9 9
r 0.574096 0 1 cbr 512 ------- 0 0.0 2.0 12 12
+ 0.574096 1 2 cbr 512 ------- 0 0.0 2.0 12 12
- 0.574096 1 2 cbr 512 ------- 0 0.0 2.0 12 12
+ 0.575 0 1 cbr 512 ------- 0 0.0 2.0 15 15
- 0.575 0 1 cbr 512 ------- 0 0.0 2.0 15 15
r 0.578192 1 2 cbr 512 ------- 0 0.0 2.0 10 10
r 0.579096 0 1 cbr 512 ------- 0 0.0 2.0 13 13
+ 0.579096 1 2 cbr 512 ------- 0 0.0 2.0 13 13
- 0.579096 1 2 cbr 512 ------- 0 0.0 2.0 13 13
+ 0.58 0 1 cbr 512 ------- 0 0.0 2.0 16 16
- 0.58 0 1 cbr 512 ------- 0 0.0 2.0 16 16
r 0.583192 1 2 cbr 512 ------- 0 0.0 2.0 11 11
r 0.584096 0 1 cbr 512 ------- 0 0.0 2.0 14 14
+ 0.584096 1 2 cbr 512 ------- 0 0.0 2.0 14 14
- 0.584096 1 2 cbr 512 ------- 0 0.0 2.0 14 14
+ 0.585 0 1 cbr 512 ------- 0 0.0 2.0 17 17
- 0.585 0 1 cbr 512 ------- 0 0.0 2.0 17 17
r 0.588192 1 2 cbr 512 ------- 0 0.0 2.0 12 12
r 0.589096 0 1 cbr 512 ------- 0 0.0 2.0 15 15
+ 0.589096 1 2 cbr 512 ------- 0 0.0 2.0 15 15
- 0.589096 1 2 cbr 512 ------- 0 0.0 2.0 15 15
+ 0.59 0 1 cbr 512 ------- 0 0.0 2.0 18 18
- 0.59 0 1 cbr 512 ------- 0 0.0 2.0 18 18
r 0.593192 1 2 cbr 512 ------- 0 0.0 2.0 13 13
r 0.594096 0 1 cbr 512 ------- 0 0.0 2.0 16 16
+ 0.594096 1 2 cbr 512 ------- 0 0.0 2.0 16 16
- 0.594096 1 2 cbr 512 ------- 0 0.0 2.0 16 16
+ 0.595 0 1 cbr 512 ------- 0 0.0 2.0 19 19
- 0.595 0 1 cbr 512 ------- 0 0.0 2.0 19 19
r 0.598192 1 2 cbr 512 ------- 0 0.0 2.0 14 14
r 0.599096 0 1 cbr 512 ------- 0 0.0 2.0 17 17
+ 0.599096 1 2 cbr 512 ------- 0 0.0 2.0 17 17
- 0.599096 1 2 cbr 512 ------- 0 0.0 2.0 17 17
+ 0.6 0 1 cbr 512 ------- 0 0.0 2.0 20 20
- 0.6 0 1 cbr 512 ------- 0 0.0 2.0 20 20
r 0.603192 1 2 cbr 512 ------- 0 0.0 2.0 15 15
r 0.604096 0 1 cbr 512 ------- 0 0.0 2.0 18 18
+ 0.604096 1 2 cbr 512 ------- 0 0.0 2.0 18 18
- 0.604096 1 2 cbr 512 ------- 0 0.0 2.0 18 18
+ 0.605 0 1 cbr 512 ------- 0 0.0 2.0 21 21
- 0.605 0 1 cbr 512 ------- 0 0.0 2.0 21 21
r 0.608192 1 2 cbr 512 ------- 0 0.0 2.0 16 16
r 0.609096 0 1 cbr 512 ------- 0 0.0 2.0 19 19
+ 0.609096 1 2 cbr 512 ------- 0 0.0 2.0 19 19
- 0.609096 1 2 cbr 512 ------- 0 0.0 2.0 19 19
+ 0.61 0 1 cbr 512 ------- 0 0.0 2.0 22 22
- 0.61 0 1 cbr 512 ------- 0 0.0 2.0 22 22
r 0.613192 1 2 cbr 512 ------- 0 0.0 2.0 17 17
r 0.614096 0 1 cbr 512 ------- 0 0.0 2.0 20 20
+ 0.614096 1 2 cbr 512 ------- 0 0.0 2.0 20 20
- 0.614096 1 2 cbr 512 ------- 0 0.0 2.0 20 20
+ 0.615 0 1 cbr 512 ------- 0 0.0 2.0 23 23
- 0.615 0 1 cbr 512 ------- 0 0.0 2.0 23 23
r 0.618192 1 2 cbr 512 ------- 0 0.0 2.0 18 18
r 0.619096 0 1 cbr 512 ------- 0 0.0 2.0 21 21
+ 0.619096 1 2 cbr 512 ------- 0 0.0 2.0 21 21
- 0.619096 1 2 cbr 512 ------- 0 0.0 2.0 21 21
+ 0.62 0 1 cbr 512 ------- 0 0.0 2.0 24 24
- 0.62 0 1 cbr 512 ------- 0 0.0 2.0 24 24
r 0.623192 1 2 cbr 512 ------- 0 0.0 2.0 19 19
r 0.624096 0 1 cbr 512 ------- 0 0.0 2.0 22 22
+ 0.624096 1 2 cbr 512 ------- 0 0.0 2.0 22 22
- 0.624096 1 2 cbr 512 ------- 0 0.0 2.0 22 22
+ 0.625 0 1 cbr 512 ------- 0 0.0 2.0 25 25
- 0.625 0 1 cbr 512 ------- 0 0.0 2.0 25 25
r 0.628192 1 2 cbr 512 ------- 0 0.0 2.0 20 20
r 0.629096 0 1 cbr 512 ------- 0 0.0 2.0 23 23
+ 0.629096 1 2 cbr 512 ------- 0 0.0 2.0 23 23
- 0.629096 1 2 cbr 512 ------- 0 0.0 2.0 23 23
+ 0.63 0 1 cbr 512 ------- 0 0.0 2.0 26 26
- 0.63 0 1 cbr 512 ------- 0 0.0 2.0 26 26
r 0.633192 1 2 cbr 512 ------- 0 0.0 2.0 21 21
r 0.634096 0 1 cbr 512 ------- 0 0.0 2.0 24 24
+ 0.634096 1 2 cbr 512 ------- 0 0.0 2.0 24 24
- 0.634096 1 2 cbr 512 ------- 0 0.0 2.0 24 24
+ 0.635 0 1 cbr 512 ------- 0 0.0 2.0 27 27
- 0.635 0 1 cbr 512 ------- 0 0.0 2.0 27 27
r 0.638192 1 2 cbr 512 ------- 0 0.0 2.0 22 22
r 0.639096 0 1 cbr 512 ------- 0 0.0 2.0 25 25
+ 0.639096 1 2 cbr 512 ------- 0 0.0 2.0 25 25
- 0.639096 1 2 cbr 512 ------- 0 0.0 2.0 25 25
+ 0.64 0 1 cbr 512 ------- 0 0.0 2.0 28 28
- 0.64 0 1 cbr 512 ------- 0 0.0 2.0 28 28
r 0.643192 1 2 cbr 512 ------- 0 0.0 2.0 23 23
r 0.644096 0 1 cbr 512 ------- 0 0.0 2.0 26 26
+ 0.644096 1 2 cbr 512 ------- 0 0.0 2.0 26 26
- 0.644096 1 2 cbr 512 ------- 0 0.0 2.0 26 26
+ 0.645 0 1 cbr 512 ------- 0 0.0 2.0 29 29
- 0.645 0 1 cbr 512 ------- 0 0.0 2.0 29 29
r 0.648192 1 2 cbr 512 ------- 0 0.0 2.0 24 24
r 0.649096 0 1 cbr 512 ------- 0 0.0 2.0 27 27
+ 0.649096 1 2 cbr 512 ------- 0 0.0 2.0 27 27
- 0.649096 1 2 cbr 512 ------- 0 0.0 2.0 27 27
+ 0.65 0 1 cbr 512 ------- 0 0.0 2.0 30 30
- 0.65 0 1 cbr 512 ------- 0 0.0 2.0 30 30
r 0.653192 1 2 cbr 512 ------- 0 0.0 2.0 25 25
r 0.654096 0 1 cbr 512 ------- 0 0.0 2.0 28 28
+ 0.654096 1 2 cbr 512 ------- 0 0.0 2.0 28 28
- 0.654096 1 2 cbr 512 ------- 0 0.0 2.0 28 28
+ 0.655 0 1 cbr 512 ------- 0 0.0 2.0 31 31
- 0.655 0 1 cbr 512 ------- 0 0.0 2.0 31 31
r 0.658192 1 2 cbr 512 ------- 0 0.0 2.0 26 26
r 0.659096 0 1 cbr 512 ------- 0 0.0 2.0 29 29
+ 0.659096 1 2 cbr 512 ------- 0 0.0 2.0 29 29
- 0.659096 1 2 cbr 512 ------- 0 0.0 2.0 29 29
+ 0.66 0 1 cbr 512 ------- 0 0.0 2.0 32 32
- 0.66 0 1 cbr 512 ------- 0 0.0 2.0 32 32
r 0.663192 1 2 cbr 512 ------- 0 0.0 2.0 27 27
r 0.664096 0 1 cbr 512 ------- 0 0.0 2.0 30 30
+ 0.664096 1 2 cbr 512 ------- 0 0.0 2.0 30 30
- 0.664096 1 2 cbr 512 ------- 0 0.0 2.0 30 30
+ 0.665 0 1 cbr 512 ------- 0 0.0 2.0 33 33
- 0.665 0 1 cbr 512 ------- 0 0.0 2.0 33 33
r 0.668192 1 2 cbr 512 ------- 0 0.0 2.0 28 28
r 0.669096 0 1 cbr 512 ------- 0 0.0 2.0 31 31
+ 0.669096 1 2 cbr 512 ------- 0 0.0 2.0 31 31
- 0.669096 1 2 cbr 512 ------- 0 0.0 2.0 31 31
+ 0.67 0 1 cbr 512 ------- 0 0.0 2.0 34 34
- 0.67 0 1 cbr 512 ------- 0 0.0 2.0 34 34
r 0.673192 1 2 cbr 512 ------- 0 0.0 2.0 29 29
r 0.674096 0 1 cbr 512 ------- 0 0.0 2.0 32 32
+ 0.674096 1 2 cbr 512 ------- 0 0.0 2.0 32 32
- 0.674096 1 2 cbr 512 ------- 0 0.0 2.0 32 32
+ 0.675 0 1 cbr 512 ------- 0 0.0 2.0 35 35
- 0.675 0 1 cbr 512 ------- 0 0.0 2.0 35 35
r 0.678192 1 2 cbr 512 ------- 0 0.0 2.0 30 30
r 0.679096 0 1 cbr 512 ------- 0 0.0 2.0 33 33
+ 0.679096 1 2 cbr 512 ------- 0 0.0 2.0 33 33
- 0.679096 1 2 cbr 512 ------- 0 0.0 2.0 33 33
+ 0.68 0 1 cbr 512 ------- 0 0.0 2.0 36 36
- 0.68 0 1 cbr 512 ------- 0 0.0 2.0 36 36
r 0.683192 1 2 cbr 512 ------- 0 0.0 2.0 31 31
r 0.684096 0 1 cbr 512 ------- 0 0.0 2.0 34 34
+ 0.684096 1 2 cbr 512 ------- 0 0.0 2.0 34 34
- 0.684096 1 2 cbr 512 ------- 0 0.0 2.0 34 34
+ 0.685 0 1 cbr 512 ------- 0 0.0 2.0 37 37
- 0.685 0 1 cbr 512 ------- 0 0.0 2.0 37 37
r 0.688192 1 2 cbr 512 ------- 0 0.0 2.0 32 32
r 0.689096 0 1 cbr 512 ------- 0 0.0 2.0 35 35
+ 0.689096 1 2 cbr 512 ------- 0 0.0 2.0 35 35
- 0.689096 1 2 cbr 512 ------- 0 0.0 2.0 35 35
+ 0.69 0 1 cbr 512 ------- 0 0.0 2.0 38 38
- 0.69 0 1 cbr 512 ------- 0 0.0 2.0 38 38
r 0.693192 1 2 cbr 512 ------- 0 0.0 2.0 33 33
r 0.694096 0 1 cbr 512 ------- 0 0.0 2.0 36 36
+ 0.694096 1 2 cbr 512 ------- 0 0.0 2.0 36 36
- 0.694096 1 2 cbr 512 ------- 0 0.0 2.0 36 36
+ 0.695 0 1 cbr 512 ------- 0 0.0 2.0 39 39
- 0.695 0 1 cbr 512 ------- 0 0.0 2.0 39 39
r 0.698192 1 2 cbr 512 ------- 0 0.0 2.0 34 34
r 0.699096 0 1 cbr 512 ------- 0 0.0 2.0 37 37
+ 0.699096 1 2 cbr 512 ------- 0 0.0 2.0 37 37
- 0.699096 1 2 cbr 512 ------- 0 0.0 2.0 37 37
+ 0.7 0 1 cbr 512 ------- 0 0.0 2.0 40 40
- 0.7 0 1 cbr 512 ------- 0 0.0 2.0 40 40
r 0.703192 1 2 cbr 512 ------- 0 0.0 2.0 35 35
r 0.704096 0 1 cbr 512 ------- 0 0.0 2.0 38 38
+ 0.704096 1 2 cbr 512 ------- 0 0.0 2.0 38 38
- 0.704096 1 2 cbr 512 ------- 0 0.0 2.0 38 38
+ 0.705 0 1 cbr 512 ------- 0 0.0 2.0 41 41
- 0.705 0 1 cbr 512 ------- 0 0.0 2.0 41 41
r 0.708192 1 2 cbr 512 ------- 0 0.0 2.0 36 36
r 0.709096 0 1 cbr 512 ------- 0 0.0 2.0 39 39
+ 0.709096 1 2 cbr 512 ------- 0 0.0 2.0 39 39
- 0.709096 1 2 cbr 512 ------- 0 0.0 2.0 39 39
+ 0.71 0 1 cbr 512 ------- 0 0.0 2.0 42 42
- 0.71 0 1 cbr 512 ------- 0 0.0 2.0 42 42
r 0.713192 1 2 cbr 512 ------- 0 0.0 2.0 37 37
r 0.714096 0 1 cbr 512 ------- 0 0.0 2.0 40 40
+ 0.714096 1 2 cbr 512 ------- 0 0.0 2.0 40 40
- 0.714096 1 2 cbr 512 ------- 0 0.0 2.0 40 40
+ 0.715 0 1 cbr 512 ------- 0 0.0 2.0 43 43
- 0.715 0 1 cbr 512 ------- 0 0.0 2.0 43 43
r 0.718192 1 2 cbr 512 ------- 0 0.0 2.0 38 38
r 0.719096 0 1 cbr 512 ------- 0 0.0 2.0 41 41
+ 0.719096 1 2 cbr 512 ------- 0 0.0 2.0 41 41
- 0.719096 1 2 cbr 512 ------- 0 0.0 2.0 41 41
+ 0.72 0 1 cbr 512 ------- 0 0.0 2.0 44 44
- 0.72 0 1 cbr 512 ------- 0 0.0 2.0 44 44
r 0.723192 1 2 cbr 512 ------- 0 0.0 2.0 39 39
r 0.724096 0 1 cbr 512 ------- 0 0.0 2.0 42 42
+ 0.724096 1 2 cbr 512 ------- 0 0.0 2.0 42 42
- 0.724096 1 2 cbr 512 ------- 0 0.0 2.0 42 42
+ 0.725 0 1 cbr 512 ------- 0 0.0 2.0 45 45
- 0.725 0 1 cbr 512 ------- 0 0.0 2.0 45 45
r 0.728192 1 2 cbr 512 ------- 0 0.0 2.0 40 40
r 0.729096 0 1 cbr 512 ------- 0 0.0 2.0 43 43
+ 0.729096 1 2 cbr 512 ------- 0 0.0 2.0 43 43
- 0.729096 1 2 cbr 512 ------- 0 0.0 2.0 43 43
+ 0.73 0 1 cbr 512 ------- 0 0.0 2.0 46 46
- 0.73 0 1 cbr 512 ------- 0 0.0 2.0 46 46
r 0.733192 1 2 cbr 512 ------- 0 0.0 2.0 41 41
r 0.734096 0 1 cbr 512 ------- 0 0.0 2.0 44 44
+ 0.734096 1 2 cbr 512 ------- 0 0.0 2.0 44 44
- 0.734096 1 2 cbr 512 ------- 0 0.0 2.0 44 44
+ 0.735 0 1 cbr 512 ------- 0 0.0 2.0 47 47
- 0.735 0 1 cbr 512 ------- 0 0.0 2.0 47 47
r 0.738192 1 2 cbr 512 ------- 0 0.0 2.0 42 42
r 0.739096 0 1 cbr 512 ------- 0 0.0 2.0 45 45
+ 0.739096 1 2 cbr 512 ------- 0 0.0 2.0 45 45
- 0.739096 1 2 cbr 512 ------- 0 0.0 2.0 45 45
+ 0.74 0 1 cbr 512 ------- 0 0.0 2.0 48 48
- 0.74 0 1 cbr 512 ------- 0 0.0 2.0 48 48
r 0.743192 1 2 cbr 512 ------- 0 0.0 2.0 43 43
r 0.744096 0 1 cbr 512 ------- 0 0.0 2.0 46 46
+ 0.744096 1 2 cbr 512 ------- 0 0.0 2.0 46 46
- 0.744096 1 2 cbr 512 ------- 0 0.0 2.0 46 46
+ 0.745 0 1 cbr 512 ------- 0 0.0 2.0 49 49
- 0.745 0 1 cbr 512 ------- 0 0.0 2.0 49 49
r 0.748192 1 2 cbr 512 ------- 0 0.0 2.0 44 44
r 0.749096 0 1 cbr 512 ------- 0 0.0 2.0 47 47
+ 0.749096 1 2 cbr 512 ------- 0 0.0 2.0 47 47
- 0.749096 1 2 cbr 512 ------- 0 0.0 2.0 47 47
+ 0.75 0 1 cbr 512 ------- 0 0.0 2.0 50 50
- 0.75 0 1 cbr 512 ------- 0 0.0 2.0 50 50
r 0.753192 1 2 cbr 512 ------- 0 0.0 2.0 45 45
r 0.754096 0 1 cbr 512 ------- 0 0.0 2.0 48 48
+ 0.754096 1 2 cbr 512 ------- 0 0.0 2.0 48 48
- 0.754096 1 2 cbr 512 ------- 0 0.0 2.0 48 48
+ 0.755 0 1 cbr 512 ------- 0 0.0 2.0 51 51
- 0.755 0 1 cbr 512 ------- 0 0.0 2.0 51 51
r 0.758192 1 2 cbr 512 ------- 0 0.0 2.0 46 46
r 0.759096 0 1 cbr 512 ------- 0 0.0 2.0 49 49
+ 0.759096 1 2 cbr 512 ------- 0 0.0 2.0 49 49
- 0.759096 1 2 cbr 512 ------- 0 0.0 2.0 49 49
+ 0.76 0 1 cbr 512 ------- 0 0.0 2.0 52 52
- 0.76 0 1 cbr 512 ------- 0 0.0 2.0 52 52
r 0.763192 1 2 cbr 512 ------- 0 0.0 2.0 47 47
r 0.764096 0 1 cbr 512 ------- 0 0.0 2.0 50 50
+ 0.764096 1 2 cbr 512 ------- 0 0.0 2.0 50 50
- 0.764096 1 2 cbr 512 ------- 0 0.0 2.0 50 50
+ 0.765 0 1 cbr 512 ------- 0 0.0 2.0 53 53
- 0.765 0 1 cbr 512 ------- 0 0.0 2.0 53 53
r 0.768192 1 2 cbr 512 ------- 0 0.0 2.0 48 48
r 0.769096 0 1 cbr 512 ------- 0 0.0 2.0 51 51
+ 0.769096 1 2 cbr 512 ------- 0 0.0 2.0 51 51
- 0.769096 1 2 cbr 512 ------- 0 0.0 2.0 51 51
+ 0.77 0 1 cbr 512 ------- 0 0.0 2.0 54 54
- 0.77 0 1 cbr 512 ------- 0 0.0 2.0 54 54
r 0.773192 1 2 cbr 512 ------- 0 0.0 2.0 49 49
r 0.774096 0 1 cbr 512 ------- 0 0.0 2.0 52 52
+ 0.774096 1 2 cbr 512 ------- 0 0.0 2.0 52 52
- 0.774096 1 2 cbr 512 ------- 0 0.0 2.0 52 52
+ 0.775 0 1 cbr 512 ------- 0 0.0 2.0 55 55
- 0.775 0 1 cbr 512 ------- 0 0.0 2.0 55 55
r 0.778192 1 2 cbr 512 ------- 0 0.0 2.0 50 50
r 0.779096 0 1 cbr 512 ------- 0 0.0 2.0 53 53
+ 0.779096 1 2 cbr 512 ------- 0 0.0 2.0 53 53
- 0.779096 1 2 cbr 512 ------- 0 0.0 2.0 53 53
+ 0.78 0 1 cbr 512 ------- 0 0.0 2.0 56 56
- 0.78 0 1 cbr 512 ------- 0 0.0 2.0 56 56
r 0.783192 1 2 cbr 512 ------- 0 0.0 2.0 51 51
r 0.784096 0 1 cbr 512 ------- 0 0.0 2.0 54 54
+ 0.784096 1 2 cbr 512 ------- 0 0.0 2.0 54 54
- 0.784096 1 2 cbr 512 ------- 0 0.0 2.0 54 54
+ 0.785 0 1 cbr 512 ------- 0 0.0 2.0 57 57
- 0.785 0 1 cbr 512 ------- 0 0.0 2.0 57 57
r 0.788192 1 2 cbr 512 ------- 0 0.0 2.0 52 52
r 0.789096 0 1 cbr 512 ------- 0 0.0 2.0 55 55
+ 0.789096 1 2 cbr 512 ------- 0 0.0 2.0 55 55
- 0.789096 1 2 cbr 512 ------- 0 0.0 2.0 55 55
+ 0.79 0 1 cbr 512 ------- 0 0.0 2.0 58 58
- 0.79 0 1 cbr 512 ------- 0 0.0 2.0 58 58
r 0.793192 1 2 cbr 512 ------- 0 0.0 2.0 53 53
r 0.794096 0 1 cbr 512 ------- 0 0.0 2.0 56 56
+ 0.794096 1 2 cbr 512 ------- 0 0.0 2.0 56 56
- 0.794096 1 2 cbr 512 ------- 0 0.0 2.0 56 56
+ 0.795 0 1 cbr 512 ------- 0 0.0 2.0 59 59
- 0.795 0 1 cbr 512 ------- 0 0.0 2.0 59 59
r 0.798192 1 2 cbr 512 ------- 0 0.0 2.0 54 54
r 0.799096 0 1 cbr 512 ------- 0 0.0 2.0 57 57
+ 0.799096 1 2 cbr 512 ------- 0 0.0 2.0 57 57
- 0.799096 1 2 cbr 512 ------- 0 0.0 2.0 57 57
+ 0.8 0 1 cbr 512 ------- 0 0.0 2.0 60 60
- 0.8 0 1 cbr 512 ------- 0 0.0 2.0 60 60
r 0.803192 1 2 cbr 512 ------- 0 0.0 2.0 55 55
r 0.804096 0 1 cbr 512 ------- 0 0.0 2.0 58 58
+ 0.804096 1 2 cbr 512 ------- 0 0.0 2.0 58 58
- 0.804096 1 2 cbr 512 ------- 0 0.0 2.0 58 58
+ 0.805 0 1 cbr 512 ------- 0 0.0 2.0 61 61
- 0.805 0 1 cbr 512 ------- 0 0.0 2.0 61 61
r 0.808192 1 2 cbr 512 ------- 0 0.0 2.0 56 56
r 0.809096 0 1 cbr 512 ------- 0 0.0 2.0 59 59
+ 0.809096 1 2 cbr 512 ------- 0 0.0 2.0 59 59
- 0.809096 1 2 cbr 512 ------- 0 0.0 2.0 59 59
+ 0.81 0 1 cbr 512 ------- 0 0.0 2.0 62 62
- 0.81 0 1 cbr 512 ------- 0 0.0 2.0 62 62
r 0.813192 1 2 cbr 512 ------- 0 0.0 2.0 57 57
r 0.814096 0 1 cbr 512 ------- 0 0.0 2.0 60 60
+ 0.814096 1 2 cbr 512 ------- 0 0.0 2.0 60 60
- 0.814096 1 2 cbr 512 ------- 0 0.0 2.0 60 60
+ 0.815 0 1 cbr 512 ------- 0 0.0 2.0 63 63
- 0.815 0 1 cbr 512 ------- 0 0.0 2.0 63 63
r 0.818192 1 2 cbr 512 ------- 0 0.0 2.0 58 58
r 0.819096 0 1 cbr 512 ------- 0 0.0 2.0 61 61
+ 0.819096 1 2 cbr 512 ------- 0 0.0 2.0 61 61
- 0.819096 1 2 cbr 512 ------- 0 0.0 2.0 61 61
+ 0.82 0 1 cbr 512 ------- 0 0.0 2.0 64 64
- 0.82 0 1 cbr 512 ------- 0 0.0 2.0 64 64
r 0.823192 1 2 cbr 512 ------- 0 0.0 2.0 59 59
r 0.824096 0 1 cbr 512 ------- 0 0.0 2.0 62 62
+ 0.824096 1 2 cbr 512 ------- 0 0.0 2.0 62 62
- 0.824096 1 2 cbr 512 ------- 0 0.0 2.0 62 62
+ 0.825 0 1 cbr 512 ------- 0 0.0 2.0 65 65
- 0.825 0 1 cbr 512 ------- 0 0.0 2.0 65 65
r 0.828192 1 2 cbr 512 ------- 0 0.0 2.0 60 60
r 0.829096 0 1 cbr 512 ------- 0 0.0 2.0 63 63
+ 0.829096 1 2 cbr 512 ------- 0 0.0 2.0 63 63
- 0.829096 1 2 cbr 512 ------- 0 0.0 2.0 63 63
+ 0.83 0 1 cbr 512 ------- 0 0.0 2.0 66 66
- 0.83 0 1 cbr 512 ------- 0 0.0 2.0 66 66
r 0.833192 1 2 cbr 512 ------- 0 0.0 2.0 61 61
r 0.834096 0 1 cbr 512 ------- 0 0.0 2.0 64 64
+ 0.834096 1 2 cbr 512 ------- 0 0.0 2.0 64 64
- 0.834096 1 2 cbr 512 ------- 0 0.0 2.0 64 64
+ 0.835 0 1 cbr 512 ------- 0 0.0 2.0 67 67
- 0.835 0 1 cbr 512 ------- 0 0.0 2.0 67 67
r 0.838192 1 2 cbr 512 ------- 0 0.0 2.0 62 62
r 0.839096 0 1 cbr 512 ------- 0 0.0 2.0 65 65
+ 0.839096 1 2 cbr 512 ------- 0 0.0 2.0 65 65
- 0.839096 1 2 cbr 512 ------- 0 0.0 2.0 65 65
+ 0.84 0 1 cbr 512 ------- 0 0.0 2.0 68 68
- 0.84 0 1 cbr 512 ------- 0 0.0 2.0 68 68
r 0.843192 1 2 cbr 512 ------- 0 0.0 2.0 63 63
r 0.844096 0 1 cbr 512 ------- 0 0.0 2.0 66 66
+ 0.844096 1 2 cbr 512 ------- 0 0.0 2.0 66 66
- 0.844096 1 2 cbr 512 ------- 0 0.0 2.0 66 66
+ 0.845 0 1 cbr 512 ------- 0 0.0 2.0 69 69
- 0.845 0 1 cbr 512 ------- 0 0.0 2.0 69 69
r 0.848192 1 2 cbr 512 ------- 0 0.0 2.0 64 64
r 0.849096 0 1 cbr 512 ------- 0 0.0 2.0 67 67
+ 0.849096 1 2 cbr 512 ------- 0 0.0 2.0 67 67
- 0.849096 1 2 cbr 512 ------- 0 0.0 2.0 67 67
+ 0.85 0 1 cbr 512 ------- 0 0.0 2.0 70 70
- 0.85 0 1 cbr 512 ------- 0 0.0 2.0 70 70
r 0.853192 1 2 cbr 512 ------- 0 0.0 2.0 65 65
r 0.854096 0 1 cbr 512 ------- 0 0.0 2.0 68 68
+ 0.854096 1 2 cbr 512 ------- 0 0.0 2.0 68 68
- 0.854096 1 2 cbr 512 ------- 0 0.0 2.0 68 68
+ 0.855 0 1 cbr 512 ------- 0 0.0 2.0 71 71
- 0.855 0 1 cbr 512 ------- 0 0.0 2.0 71 71
r 0.858192 1 2 cbr 512 ------- 0 0.0 2.0 66 66
r 0.859096 0 1 cbr 512 ------- 0 0.0 2.0 69 69
+ 0.859096 1 2 cbr 512 ------- 0 0.0 2.0 69 69
- 0.859096 1 2 cbr 512 ------- 0 0.0 2.0 69 69
+ 0.86 0 1 cbr 512 ------- 0 0.0 2.0 72 72
- 0.86 0 1 cbr 512 ------- 0 0.0 2.0 72 72
r 0.863192 1 2 cbr 512 ------- 0 0.0 2.0 67 67
r 0.864096 0 1 cbr 512 ------- 0 0.0 2.0 70 70
+ 0.864096 1 2 cbr 512 ------- 0 0.0 2.0 70 70
- 0.864096 1 2 cbr 512 ------- 0 0.0 2.0 70 70
+ 0.865 0 1 cbr 512 ------- 0 0.0 2.0 73 73
- 0.865 0 1 cbr 512 ------- 0 0.0 2.0 73 73
r 0.868192 1 2 cbr 512 ------- 0 0.0 2.0 68 68
r 0.869096 0 1 cbr 512 ------- 0 0.0 2.0 71 71
+ 0.869096 1 2 cbr 512 ------- 0 0.0 2.0 71 71
- 0.869096 1 2 cbr 512 ------- 0 0.0 2.0 71 71
+ 0.87 0 1 cbr 512 ------- 0 0.0 2.0 74 74
- 0.87 0 1 cbr 512 ------- 0 0.0 2.0 74 74
r 0.873192 1 2 cbr 512 ------- 0 0.0 2.0 69 69
r 0.874096 0 1 cbr 512 ------- 0 0.0 2.0 72 72
+ 0.874096 1 2 cbr 512 ------- 0 0.0 2.0 72 72
- 0.874096 1 2 cbr 512 ------- 0 0.0 2.0 72 72
+ 0.875 0 1 cbr 512 ------- 0 0.0 2.0 75 75
- 0.875 0 1 cbr 512 ------- 0 0.0 2.0 75 75
r 0.878192 1 2 cbr 512 ------- 0 0.0 2.0 70 70
r 0.879096 0 1 cbr 512 ------- 0 0.0 2.0 73 73
+ 0.879096 1 2 cbr 512 ------- 0 0.0 2.0 73 73
- 0.879096 1 2 cbr 512 ------- 0 0.0 2.0 73 73
+ 0.88 0 1 cbr 512 ------- 0 0.0 2.0 76 76
- 0.88 0 1 cbr 512 ------- 0 0.0 2.0 76 76
r 0.883192 1 2 cbr 512 ------- 0 0.0 2.0 71 71
r 0.884096 0 1 cbr 512 ------- 0 0.0 2.0 74 74
+ 0.884096 1 2 cbr 512 ------- 0 0.0 2.0 74 74
- 0.884096 1 2 cbr 512 ------- 0 0.0 2.0 74 74
+ 0.885 0 1 cbr 512 ------- 0 0.0 2.0 77 77
- 0.885 0 1 cbr 512 ------- 0 0.0 2.0 77 77
r 0.888192 1 2 cbr 512 ------- 0 0.0 2.0 72 72
r 0.889096 0 1 cbr 512 ------- 0 0.0 2.0 75 75
+ 0.889096 1 2 cbr 512 ------- 0 0.0 2.0 75 75
- 0.889096 1 2 cbr 512 ------- 0 0.0 2.0 75 75
+ 0.89 0 1 cbr 512 ------- 0 0.0 2.0 78 78
- 0.89 0 1 cbr 512 ------- 0 0.0 2.0 78 78
r 0.893192 1 2 cbr 512 ------- 0 0.0 2.0 73 73
r 0.894096 0 1 cbr 512 ------- 0 0.0 2.0 76 76
+ 0.894096 1 2 cbr 512 ------- 0 0.0 2.0 76 76
- 0.894096 1 2 cbr 512 ------- 0 0.0 2.0 76 76
+ 0.895 0 1 cbr 512 ------- 0 0.0 2.0 79 79
- 0.895 0 1 cbr 512 ------- 0 0.0 2.0 79 79
r 0.898192 1 2 cbr 512 ------- 0 0.0 2.0 74 74
r 0.899096 0 1 cbr 512 ------- 0 0.0 2.0 77 77
+ 0.899096 1 2 cbr 512 ------- 0 0.0 2.0 77 77
- 0.899096 1 2 cbr 512 ------- 0 0.0 2.0 77 77
+ 0.9 0 1 cbr 512 ------- 0 0.0 2.0 80 80
- 0.9 0 1 cbr 512 ------- 0 0.0 2.0 80 80
r 0.903192 1 2 cbr 512 ------- 0 0.0 2.0 75 75
r 0.904096 0 1 cbr 512 ------- 0 0.0 2.0 78 78
+ 0.904096 1 2 cbr 512 ------- 0 0.0 2.0 78 78
- 0.904096 1 2 cbr 512 ------- 0 0.0 2.0 78 78
+ 0.905 0 1 cbr 512 ------- 0 0.0 2.0 81 81
- 0.905 0 1 cbr 512 ------- 0 0.0 2.0 81 81
r 0.908192 1 2 cbr 512 ------- 0 0.0 2.0 76 76
r 0.909096 0 1 cbr 512 ------- 0 0.0 2.0 79 79
+ 0.909096 1 2 cbr 512 ------- 0 0.0 2.0 79 79
- 0.909096 1 2 cbr 512 ------- 0 0.0 2.0 79 79
+ 0.91 0 1 cbr 512 ------- 0 0.0 2.0 82 82
- 0.91 0 1 cbr 512 ------- 0 0.0 2.0 82 82
r 0.913192 1 2 cbr 512 ------- 0 0.0 2.0 77 77
r 0.914096 0 1 cbr 512 ------- 0 0.0 2.0 80 80
+ 0.914096 1 2 cbr 512 ------- 0 0.0 2.0 80 80
- 0.914096 1 2 cbr 512 ------- 0 0.0 2.0 80 80
+ 0.915 0 1 cbr 512 ------- 0 0.0 2.0 83 83
- 0.915 0 1 cbr 512 ------- 0 0.0 2.0 83 83
r 0.918192 1 2 cbr 512 ------- 0 0.0 2.0 78 78
r 0.919096 0 1 cbr 512 ------- 0 0.0 2.0 81 81
+ 0.919096 1 2 cbr 512 ------- 0 0.0 2.0 81 81
- 0.919096 1 2 cbr 512 ------- 0 0.0 2.0 81 81
+ 0.92 0 1 cbr 512 ------- 0 0.0 2.0 84 84
- 0.92 0 1 cbr 512 ------- 0 0.0 2.0 84 84
r 0.923192 1 2 cbr 512 ------- 0 0.0 2.0 79 79
r 0.924096 0 1 cbr 512 ------- 0 0.0 2.0 82 82
+ 0.924096 1 2 cbr 512 ------- 0 0.0 2.0 82 82
- 0.924096 1 2 cbr 512 ------- 0 0.0 2.0 82 82
+ 0.925 0 1 cbr 512 ------- 0 0.0 2.0 85 85
- 0.925 0 1 cbr 512 ------- 0 0.0 2.0 85 85
r 0.928192 1 2 cbr 512 ------- 0 0.0 2.0 80 80
r 0.929096 0 1 cbr 512 ------- 0 0.0 2.0 83 83
+ 0.929096 1 2 cbr 512 ------- 0 0.0 2.0 83 83
- 0.929096 1 2 cbr 512 ------- 0 0.0 2.0 83 83
+ 0.93 0 1 cbr 512 ------- 0 0.0 2.0 86 86
- 0.93 0 1 cbr 512 ------- 0 0.0 2.0 86 86
r 0.933192 1 2 cbr 512 ------- 0 0.0 2.0 81 81
r 0.934096 0 1 cbr 512 ------- 0 0.0 2.0 84 84
+ 0.934096 1 2 cbr 512 ------- 0 0.0 2.0 84 84
- 0.934096 1 2 cbr 512 ------- 0 0.0 2.0 84 84
+ 0.935 0 1 cbr 512 ------- 0 0.0 2.0 87 87
- 0.935 0 1 cbr 512 ------- 0 0.0 2.0 87 87
r 0.938192 1 2 cbr 512 ------- 0 0.0 2.0 82 82
r 0.939096 0 1 cbr 512 ------- 0 0.0 2.0 85 85
+ 0.939096 1 2 cbr 512 ------- 0 0.0 2.0 85 85
- 0.939096 1 2 cbr 512 ------- 0 0.0 2.0 85 85
+ 0.94 0 1 cbr 512 ------- 0 0.0 2.0 88 88
- 0.94 0 1 cbr 512 ------- 0 0.0 2.0 88 88
r 0.943192 1 2 cbr 512 ------- 0 0.0 2.0 83 83
r 0.944096 0 1 cbr 512 ------- 0 0.0 2.0 86 86
+ 0.944096 1 2 cbr 512 ------- 0 0.0 2.0 86 86
- 0.944096 1 2 cbr 512 ------- 0 0.0 2.0 86 86
+ 0.945 0 1 cbr 512 ------- 0 0.0 2.0 89 89
- 0.945 0 1 cbr 512 ------- 0 0.0 2.0 89 89
r 0.948192 1 2 cbr 512 ------- 0 0.0 2.0 84 84
r 0.949096 0 1 cbr 512 ------- 0 0.0 2.0 87 87
+ 0.949096 1 2 cbr 512 ------- 0 0.0 2.0 87 87
- 0.949096 1 2 cbr 512 ------- 0 0.0 2.0 87 87
+ 0.95 0 1 cbr 512 ------- 0 0.0 2.0 90 90
- 0.95 0 1 cbr 512 ------- 0 0.0 2.0 90 90
r 0.953192 1 2 cbr 512 ------- 0 0.0 2.0 85 85
r 0.954096 0 1 cbr 512 ------- 0 0.0 2.0 88 88
+ 0.954096 1 2 cbr 512 ------- 0 0.0 2.0 88 88
- 0.954096 1 2 cbr 512 ------- 0 0.0 2.0 88 88
+ 0.955 0 1 cbr 512 ------- 0 0.0 2.0 91 91
- 0.955 0 1 cbr 512 ------- 0 0.0 2.0 91 91
r 0.958192 1 2 cbr 512 ------- 0 0.0 2.0 86 86
r 0.959096 0 1 cbr 512 ------- 0 0.0 2.0 89 89
+ 0.959096 1 2 cbr 512 ------- 0 0.0 2.0 89 89
- 0.959096 1 2 cbr 512 ------- 0 0.0 2.0 89 89
+ 0.96 0 1 cbr 512 ------- 0 0.0 2.0 92 92
- 0.96 0 1 cbr 512 ------- 0 0.0 2.0 92 92
r 0.963192 1 2 cbr 512 ------- 0 0.0 2.0 87 87
r 0.964096 0 1 cbr 512 ------- 0 0.0 2.0 90 90
+ 0.964096 1 2 cbr 512 ------- 0 0.0 2.0 90 90
- 0.964096 1 2 cbr 512 ------- 0 0.0 2.0 90 90
+ 0.965 0 1 cbr 512 ------- 0 0.0 2.0 93 93
- 0.965 0 1 cbr 512 ------- 0 0.0 2.0 93 93
r 0.968192 1 2 cbr 512 ------- 0 0.0 2.0 88 88
r 0.969096 0 1 cbr 512 ------- 0 0.0 2.0 91 91
+ 0.969096 1 2 cbr 512 ------- 0 0.0 2.0 91 91
- 0.969096 1 2 cbr 512 ------- 0 0.0 2.0 91 91
+ 0.97 0 1 cbr 512 ------- 0 0.0 2.0 94 94
- 0.97 0 1 cbr 512 ------- 0 0.0 2.0 94 94
r 0.973192 1 2 cbr 512 ------- 0 0.0 2.0 89 89
r 0.974096 0 1 cbr 512 ------- 0 0.0 2.0 92 92
+ 0.974096 1 2 cbr 512 ------- 0 0.0 2.0 92 92
- 0.974096 1 2 cbr 512 ------- 0 0.0 2.0 92 92
+ 0.975 0 1 cbr 512 ------- 0 0.0 2.0 95 95
- 0.975 0 1 cbr 512 ------- 0 0.0 2.0 95 95
r 0.978192 1 2 cbr 512 ------- 0 0.0 2.0 90 90
r 0.979096 0 1 cbr 512 ------- 0 0.0 2.0 93 93
+ 0.979096 1 2 cbr 512 ------- 0 0.0 2.0 93 93
- 0.979096 1 2 cbr 512 ------- 0 0.0 2.0 93 93
+ 0.98 0 1 cbr 512 ------- 0 0.0 2.0 96 96
- 0.98 0 1 cbr 512 ------- 0 0.0 2.0 96 96
r 0.983192 1 2 cbr 512 ------- 0 0.0 2.0 91 91
r 0.984096 0 1 cbr 512 ------- 0 0.0 2.0 94 94
+ 0.984096 1 2 cbr 512 ------- 0 0.0 2.0 94 94
- 0.984096 1 2 cbr 512 ------- 0 0.0 2.0 94 94
+ 0.985 0 1 cbr 512 ------- 0 0.0 2.0 97 97
- 0.985 0 1 cbr 512 ------- 0 0.0 2.0 97 97
r 0.988192 1 2 cbr 512 ------- 0 0.0 2.0 92 92
r 0.989096 0 1 cbr 512 ------- 0 0.0 2.0 95 95
+ 0.989096 1 2 cbr 512 ------- 0 0.0 2.0 95 95
- 0.989096 1 2 cbr 512 ------- 0 0.0 2.0 95 95
+ 0.99 0 1 cbr 512 ------- 0 0.0 2.0 98 98
- 0.99 0 1 cbr 512 ------- 0 0.0 2.0 98 98
r 0.993192 1 2 cbr 512 ------- 0 0.0 2.0 93 93
r 0.994096 0 1 cbr 512 ------- 0 0.0 2.0 96 96
+ 0.994096 1 2 cbr 512 ------- 0 0.0 2.0 96 96
- 0.994096 1 2 cbr 512 ------- 0 0.0 2.0 96 96
+ 0.995 0 1 cbr 512 ------- 0 0.0 2.0 99 99
- 0.995 0 1 cbr 512 ------- 0 0.0 2.0 99 99
r 0.998192 1 2 cbr 512 ------- 0 0.0 2.0 94 94
r 0.999096 0 1 cbr 512 ------- 0 0.0 2.0 97 97
+ 0.999096 1 2 cbr 512 ------- 0 0.0 2.0 97 97
- 0.999096 1 2 cbr 512 ------- 0 0.0 2.0 97 97
+ 1 0 1 cbr 512 ------- 0 0.0 2.0 100 100
- 1 0 1 cbr 512 ------- 0 0.0 2.0 100 100
r 1.003192 1 2 cbr 512 ------- 0 0.0 2.0 95 95
r 1.004096 0 1 cbr 512 ------- 0 0.0 2.0 98 98
+ 1.004096 1 2 cbr 512 ------- 0 0.0 2.0 98 98
- 1.004096 1 2 cbr 512 ------- 0 0.0 2.0 98 98
+ 1.005 0 1 cbr 512 ------- 0 0.0 2.0 101 101
- 1.005 0 1 cbr 512 ------- 0 0.0 2.0 101 101
r 1.008192 1 2 cbr 512 ------- 0 0.0 2.0 96 96
r 1.009096 0 1 cbr 512 ------- 0 0.0 2.0 99 99
+ 1.009096 1 2 cbr 512 ------- 0 0.0 2.0 99 99
- 1.009096 1 2 cbr 512 ------- 0 0.0 2.0 99 99
+ 1.01 0 1 cbr 512 ------- 0 0.0 2.0 102 102
- 1.01 0 1 cbr 512 ------- 0 0.0 2.0 102 102
r 1.013192 1 2 cbr 512 ------- 0 0.0 2.0 97 97
r 1.014096 0 1 cbr 512 ------- 0 0.0 2.0 100 100
+ 1.014096 1 2 cbr 512 ------- 0 0.0 2.0 100 100
- 1.014096 1 2 cbr 512 ------- 0 0.0 2.0 100 100
+ 1.015 0 1 cbr 512 ------- 0 0.0 2.0 103 103
- 1.015 0 1 cbr 512 ------- 0 0.0 2.0 103 103
r 1.018192 1 2 cbr 512 ------- 0 0.0 2.0 98 98
r 1.019096 0 1 cbr 512 ------- 0 0.0 2.0 101 101
+ 1.019096 1 2 cbr 512 ------- 0 0.0 2.0 101 101
- 1.019096 1 2 cbr 512 ------- 0 0.0 2.0 101 101
+ 1.02 0 1 cbr 512 ------- 0 0.0 2.0 104 104
- 1.02 0 1 cbr 512 ------- 0 0.0 2.0 104 104
r 1.023192 1 2 cbr 512 ------- 0 0.0 2.0 99 99
r 1.024096 0 1 cbr 512 ------- 0 0.0 2.0 102 102
+ 1.024096 1 2 cbr 512 ------- 0 0.0 2.0 102 102
- 1.024096 1 2 cbr 512 ------- 0 0.0 2.0 102 102
+ 1.025 0 1 cbr 512 ------- 0 0.0 2.0 105 105
- 1.025 0 1 cbr 512 ------- 0 0.0 2.0 105 105
r 1.028192 1 2 cbr 512 ------- 0 0.0 2.0 100 100
r 1.029096 0 1 cbr 512 ------- 0 0.0 2.0 103 103
+ 1.029096 1 2 cbr 512 ------- 0 0.0 2.0 103 103
- 1.029096 1 2 cbr 512 ------- 0 0.0 2.0 103 103
+ 1.03 0 1 cbr 512 ------- 0 0.0 2.0 106 106
- 1.03 0 1 cbr 512 ------- 0 0.0 2.0 106 106
r 1.033192 1 2 cbr 512 ------- 0 0.0 2.0 101 101
r 1.034096 0 1 cbr 512 ------- 0 0.0 2.0 104 104
+ 1.034096 1 2 cbr 512 ------- 0 0.0 2.0 104 104
- 1.034096 1 2 cbr 512 ------- 0 0.0 2.0 104 104
+ 1.035 0 1 cbr 512 ------- 0 0.0 2.0 107 107
- 1.035 0 1 cbr 512 ------- 0 0.0 2.0 107 107
r 1.038192 1 2 cbr 512 ------- 0 0.0 2.0 102 102
r 1.039096 0 1 cbr 512 ------- 0 0.0 2.0 105 105
+ 1.039096 1 2 cbr 512 ------- 0 0.0 2.0 105 105
- 1.039096 1 2 cbr 512 ------- 0 0.0 2.0 105 105
+ 1.04 0 1 cbr 512 ------- 0 0.0 2.0 108 108
- 1.04 0 1 cbr 512 ------- 0 0.0 2.0 108 108
r 1.043192 1 2 cbr 512 ------- 0 0.0 2.0 103 103
r 1.044096 0 1 cbr 512 ------- 0 0.0 2.0 106 106
+ 1.044096 1 2 cbr 512 ------- 0 0.0 2.0 106 106
- 1.044096 1 2 cbr 512 ------- 0 0.0 2.0 106 106
+ 1.045 0 1 cbr 512 ------- 0 0.0 2.0 109 109
- 1.045 0 1 cbr 512 ------- 0 0.0 2.0 109 109
r 1.048192 1 2 cbr 512 ------- 0 0.0 2.0 104 104
r 1.049096 0 1 cbr 512 ------- 0 0.0 2.0 107 107
+ 1.049096 1 2 cbr 512 ------- 0 0.0 2.0 107 107
- 1.049096 1 2 cbr 512 ------- 0 0.0 2.0 107 107
+ 1.05 0 1 cbr 512 ------- 0 0.0 2.0 110 110
- 1.05 0 1 cbr 512 ------- 0 0.0 2.0 110 110
r 1.053192 1 2 cbr 512 ------- 0 0.0 2.0 105 105
r 1.054096 0 1 cbr 512 ------- 0 0.0 2.0 108 108
+ 1.054096 1 2 cbr 512 ------- 0 0.0 2.0 108 108
- 1.054096 1 2 cbr 512 ------- 0 0.0 2.0 108 108